% Model:              hollow_cuboid_phys.mph
% Version:            COMSOL 6.0.0.405
% Date:               Dec 11 2024, 09:43
% Table:              Table 3 - 
% I0 (A)                 Electric potential
0                        -0.002478805992736714
0.5                      0.0032427411429946586
1                        0.008981864160824832
1.5                      0.014746501804122802
2                        0.020535983480605643
