% Model:              hollow_cuboid_phys.mph
% Version:            COMSOL 6.0.0.405
% Date:               Dec 11 2024, 09:40
% Table:              Table 2 - 
% diff_T (K)             Electric potential
1                        -1.3285476475619E-5
101                      -2.884998617406396E-4
201                      -7.25452587162659E-4
301                      -0.0012901250047994129
401                      -0.0019140044436896462
501                      -0.0024838396769688484
