% Model:              hollow_honeycomb_phys.mph
% Version:            COMSOL 6.0.0.405
% Date:               Dec 11 2024, 09:49
% Table:              Table 1 - 
% diff_T (K)             Electric potential
1                        -2.5257759617500675E-5
101                      -5.373207970168573E-4
201                      -0.0013222295217915128
301                      -0.002336917712395256
401                      -0.0034851995635701597
501                      -0.0046075741262931414
