% Model:              hollow_honeycomb_phys.mph
% Version:            COMSOL 6.0.0.405
% Date:               Dec 11 2024, 09:52
% Table:              Table 2 - 
% I0 (A)                 Electric potential
0                        -0.004597121060292466
0.5                      0.0040922509225077884
1                        0.012823695878680099
1.5                      0.021600413664701557
2                        0.030448641985462245
