% Model:              hollow_mesh_phys.mph
% Version:            COMSOL 6.0.0.405
% Date:               Dec 11 2024, 09:57
% Table:              Table 1 - 
% diff_T (K)             Electric potential
1                        -2.4176582596214598E-5
101                      -5.152182622344823E-4
201                      -0.001270586126349787
301                      -0.0022474998177762747
401                      -0.0033509677601943548
501                      -0.004424197040859514
