% Model:              hollow_mesh_phys.mph
% Version:            COMSOL 6.0.0.405
% Date:               Dec 11 2024, 10:01
% Table:              Table 2 - 
% I0 (A)                 Electric potential
0                        -0.004414243779083631
0.5                      0.003135179013759069
1                        0.010717425115122073
1.5                      0.01833166579153202
2                        0.025998349989085352
