% Model:              thermo_rect_phys.mph
% Version:            COMSOL 6.0.0.405
% Date:               Dec 11 2024, 09:12
% Table:              Table 5 - 
% diff_T (K)             Electric potential
1                        -7.98667392329988E-6
101                      -1.7508283272591257E-4
201                      -4.444037915915747E-4
301                      -7.915166724734881E-4
401                      -0.0011696621890719611
501                      -0.0015018231477443003
