% Model:              thermo_rect_phys.mph
% Version:            COMSOL 6.0.0.405
% Date:               Dec 11 2024, 09:18
% Table:              Table 6 - 
% I0 (A)                 Electric potential
0                        -0.0014989641547942995
0.5                      0.0026518315238129517
1                        0.006810739961166819
1.5                      0.01098208062837129
2                        0.015163900045732294
