% Model:              hollow_cuboid_phys.mph
% Version:            COMSOL 6.0.0.405
% Date:               Apr 9 2025, 12:42
% Dimension:          3
% Nodes:              1
% Expressions:        50
% Description:        Temperature
% Length unit:        m
% x                       y                        z                        T (K) @ I0=0, THP=323.15 T (K) @ I0=0, THP=373.15 T (K) @ I0=0, THP=423.15 T (K) @ I0=0, THP=473.15 T (K) @ I0=0, THP=523.15 T (K) @ I0=0, THP=573.15 T (K) @ I0=0, THP=623.15 T (K) @ I0=0, THP=673.15 T (K) @ I0=0, THP=723.15 T (K) @ I0=0, THP=773.15 T (K) @ I0=0.5, THP=323.15 T (K) @ I0=0.5, THP=373.15 T (K) @ I0=0.5, THP=423.15 T (K) @ I0=0.5, THP=473.15 T (K) @ I0=0.5, THP=523.15 T (K) @ I0=0.5, THP=573.15 T (K) @ I0=0.5, THP=623.15 T (K) @ I0=0.5, THP=673.15 T (K) @ I0=0.5, THP=723.15 T (K) @ I0=0.5, THP=773.15 T (K) @ I0=1, THP=323.15 T (K) @ I0=1, THP=373.15 T (K) @ I0=1, THP=423.15 T (K) @ I0=1, THP=473.15 T (K) @ I0=1, THP=523.15 T (K) @ I0=1, THP=573.15 T (K) @ I0=1, THP=623.15 T (K) @ I0=1, THP=673.15 T (K) @ I0=1, THP=723.15 T (K) @ I0=1, THP=773.15 T (K) @ I0=1.5, THP=323.15 T (K) @ I0=1.5, THP=373.15 T (K) @ I0=1.5, THP=423.15 T (K) @ I0=1.5, THP=473.15 T (K) @ I0=1.5, THP=523.15 T (K) @ I0=1.5, THP=573.15 T (K) @ I0=1.5, THP=623.15 T (K) @ I0=1.5, THP=673.15 T (K) @ I0=1.5, THP=723.15 T (K) @ I0=1.5, THP=773.15 T (K) @ I0=2, THP=323.15 T (K) @ I0=2, THP=373.15 T (K) @ I0=2, THP=423.15 T (K) @ I0=2, THP=473.15 T (K) @ I0=2, THP=523.15 T (K) @ I0=2, THP=573.15 T (K) @ I0=2, THP=623.15 T (K) @ I0=2, THP=673.15 T (K) @ I0=2, THP=723.15 T (K) @ I0=2, THP=773.15
0.003                     0                        0.003                    293.15134161237665       293.1536488337289        293.1558798309491        293.15800943598873       293.16006380567455       293.16207991889036       293.1640813168024        293.16607576722987       293.16807323608896       293.1700830720282        293.15136103805446       293.15366925820075       293.15590149692406       293.1580322316971        293.1600878879108        293.16210529501546       293.16410803999656       293.16610372976675       293.1681025038956        293.17011354794295       293.1513944700496        293.1537025413843        293.155936568153         293.15806843173226       293.16012564817873       293.1621444015706        293.1641485317357        293.1661458175131        293.16814597603815       293.1701582740619        293.15143963162393       293.1537504405691        293.1559856297459        293.1581187629188        293.16017693862545       293.16219707496873       293.164203111917         293.16620172128444       293.16820324792855       293.1702168761712        293.1515001692714        293.15381198417276       293.1560469558931        293.1581828710698        293.1602425074859        293.16226415517053       293.16427120286244       293.16627125334514       293.1682747466699        293.1702897527626
