% Model:              hollow_cuboid_phys.mph
% Version:            COMSOL 6.0.0.405
% Date:               Apr 9 2025, 12:38
% Dimension:          3
% Nodes:              1
% Expressions:        50
% Description:        Electric potential
% Length unit:        m
% x                       y                        z                        V (V) @ I0=0, THP=323.15 V (V) @ I0=0, THP=373.15 V (V) @ I0=0, THP=423.15 V (V) @ I0=0, THP=473.15 V (V) @ I0=0, THP=523.15 V (V) @ I0=0, THP=573.15 V (V) @ I0=0, THP=623.15 V (V) @ I0=0, THP=673.15 V (V) @ I0=0, THP=723.15 V (V) @ I0=0, THP=773.15 V (V) @ I0=0.5, THP=323.15 V (V) @ I0=0.5, THP=373.15 V (V) @ I0=0.5, THP=423.15 V (V) @ I0=0.5, THP=473.15 V (V) @ I0=0.5, THP=523.15 V (V) @ I0=0.5, THP=573.15 V (V) @ I0=0.5, THP=623.15 V (V) @ I0=0.5, THP=673.15 V (V) @ I0=0.5, THP=723.15 V (V) @ I0=0.5, THP=773.15 V (V) @ I0=1, THP=323.15 V (V) @ I0=1, THP=373.15 V (V) @ I0=1, THP=423.15 V (V) @ I0=1, THP=473.15 V (V) @ I0=1, THP=523.15 V (V) @ I0=1, THP=573.15 V (V) @ I0=1, THP=623.15 V (V) @ I0=1, THP=673.15 V (V) @ I0=1, THP=723.15 V (V) @ I0=1, THP=773.15 V (V) @ I0=1.5, THP=323.15 V (V) @ I0=1.5, THP=373.15 V (V) @ I0=1.5, THP=423.15 V (V) @ I0=1.5, THP=473.15 V (V) @ I0=1.5, THP=523.15 V (V) @ I0=1.5, THP=573.15 V (V) @ I0=1.5, THP=623.15 V (V) @ I0=1.5, THP=673.15 V (V) @ I0=1.5, THP=723.15 V (V) @ I0=1.5, THP=773.15 V (V) @ I0=2, THP=323.15 V (V) @ I0=2, THP=373.15 V (V) @ I0=2, THP=423.15 V (V) @ I0=2, THP=473.15 V (V) @ I0=2, THP=523.15 V (V) @ I0=2, THP=573.15 V (V) @ I0=2, THP=623.15 V (V) @ I0=2, THP=673.15 V (V) @ I0=2, THP=723.15 V (V) @ I0=2, THP=773.15
0.003                     0.015                    0.003                    -4.661814694063105E-4    -0.001308331982553939    -0.0022620347843821144   -0.003322494823373493    -0.004486913176198393    -0.005754881089198597    -0.007119242257717923    -0.008564885759829385    -0.010071291665282143    -0.011613204620434057    0.004380322410542114     0.0035650287592344124    0.002646115401489142     0.0016405196807700612    5.256382584929803E-4     -7.179510627801254E-4    -0.0020711335732941103   -0.00349591612178546     -0.004963405446591488    -0.006450600293561613    0.009226154008771753     0.00843991277766393      0.007555104298428895     0.0066048085253781535    0.0055391404308092465    0.0043200653875919825    0.0029781867426894875    0.0015727534734545395    1.4402822514095163E-4    -0.0012883126656298546   0.014074853522599903     0.013313319982656042     0.012463885487331508     0.011568764188006491     0.010554387958923885     0.009360147184714163     0.008027491505487159     0.006642967666205785     0.005253497195007312     0.0038760331058567024    0.018920878729658048     0.018187184982129588     0.01737604232348415      0.016533657273081703     0.01556929777406236      0.01439920789714927      0.0130797652425543       0.011715916683699432     0.010362918474205769     0.0090405623612013
