% Model:              hollow_honeycomb_phys.mph
% Version:            COMSOL 6.0.0.405
% Date:               Apr 9 2025, 12:51
% Dimension:          3
% Nodes:              1
% Expressions:        50
% Description:        Temperature
% Length unit:        m
% x                       y                        z                        T (K) @ I0=0, THP=323.15 T (K) @ I0=0.5, THP=323.15 T (K) @ I0=1, THP=323.15 T (K) @ I0=1.5, THP=323.15 T (K) @ I0=2, THP=323.15 T (K) @ I0=0, THP=373.15 T (K) @ I0=0.5, THP=373.15 T (K) @ I0=1, THP=373.15 T (K) @ I0=1.5, THP=373.15 T (K) @ I0=2, THP=373.15 T (K) @ I0=0, THP=423.15 T (K) @ I0=0.5, THP=423.15 T (K) @ I0=1, THP=423.15 T (K) @ I0=1.5, THP=423.15 T (K) @ I0=2, THP=423.15 T (K) @ I0=0, THP=473.15 T (K) @ I0=0.5, THP=473.15 T (K) @ I0=1, THP=473.15 T (K) @ I0=1.5, THP=473.15 T (K) @ I0=2, THP=473.15 T (K) @ I0=0, THP=523.15 T (K) @ I0=0.5, THP=523.15 T (K) @ I0=1, THP=523.15 T (K) @ I0=1.5, THP=523.15 T (K) @ I0=2, THP=523.15 T (K) @ I0=0, THP=573.15 T (K) @ I0=0.5, THP=573.15 T (K) @ I0=1, THP=573.15 T (K) @ I0=1.5, THP=573.15 T (K) @ I0=2, THP=573.15 T (K) @ I0=0, THP=623.15 T (K) @ I0=0.5, THP=623.15 T (K) @ I0=1, THP=623.15 T (K) @ I0=1.5, THP=623.15 T (K) @ I0=2, THP=623.15 T (K) @ I0=0, THP=673.15 T (K) @ I0=0.5, THP=673.15 T (K) @ I0=1, THP=673.15 T (K) @ I0=1.5, THP=673.15 T (K) @ I0=2, THP=673.15 T (K) @ I0=0, THP=723.15 T (K) @ I0=0.5, THP=723.15 T (K) @ I0=1, THP=723.15 T (K) @ I0=1.5, THP=723.15 T (K) @ I0=2, THP=723.15 T (K) @ I0=0, THP=773.15 T (K) @ I0=0.5, THP=773.15 T (K) @ I0=1, THP=773.15 T (K) @ I0=1.5, THP=773.15 T (K) @ I0=2, THP=773.15
0.003                     0                        0.003                    293.15065663110784       293.1506755809657        293.1507108411001        293.150763978244         293.1508341113091        293.15178669429616       293.15180635311793       293.1518427211653        293.15189666655397       293.1519677289378        293.1528800868081        293.15290051133593       293.15293753114065       293.1529924415908        293.15306454103325       293.1539235218127        293.1539447958511        293.153983499363         293.1540385930627        293.15411184957156       293.15492996651807       293.15495235405035       293.15499188624705       293.15504898807063       293.1551224734065        293.1559172285697        293.15594061018624       293.15598119401955       293.1560394618907        293.15611520669825       293.1568962514041        293.1569207226911        293.1569625957747        293.1570218088996        293.15709881880923       293.1578720145354        293.1578975395086        293.15794049103044       293.15800083027597       293.1580790290787        293.1588484259196        293.158874946404         293.15891894782493       293.1589803547293        293.1590596923492        293.1598301390237        293.1598576074726        293.15990260877356       293.1599653623025        293.16004554963456
