% Model:              hollow_honeycomb_phys.mph
% Version:            COMSOL 6.0.0.405
% Date:               Apr 9 2025, 12:50
% Dimension:          3
% Nodes:              1
% Expressions:        50
% Description:        Electric potential
% Length unit:        m
% x                       y                        z                        V (V) @ I0=0, THP=323.15 V (V) @ I0=0.5, THP=323.15 V (V) @ I0=1, THP=323.15 V (V) @ I0=1.5, THP=323.15 V (V) @ I0=2, THP=323.15 V (V) @ I0=0, THP=373.15 V (V) @ I0=0.5, THP=373.15 V (V) @ I0=1, THP=373.15 V (V) @ I0=1.5, THP=373.15 V (V) @ I0=2, THP=373.15 V (V) @ I0=0, THP=423.15 V (V) @ I0=0.5, THP=423.15 V (V) @ I0=1, THP=423.15 V (V) @ I0=1.5, THP=423.15 V (V) @ I0=2, THP=423.15 V (V) @ I0=0, THP=473.15 V (V) @ I0=0.5, THP=473.15 V (V) @ I0=1, THP=473.15 V (V) @ I0=1.5, THP=473.15 V (V) @ I0=2, THP=473.15 V (V) @ I0=0, THP=523.15 V (V) @ I0=0.5, THP=523.15 V (V) @ I0=1, THP=523.15 V (V) @ I0=1.5, THP=523.15 V (V) @ I0=2, THP=523.15 V (V) @ I0=0, THP=573.15 V (V) @ I0=0.5, THP=573.15 V (V) @ I0=1, THP=573.15 V (V) @ I0=1.5, THP=573.15 V (V) @ I0=2, THP=573.15 V (V) @ I0=0, THP=623.15 V (V) @ I0=0.5, THP=623.15 V (V) @ I0=1, THP=623.15 V (V) @ I0=1.5, THP=623.15 V (V) @ I0=2, THP=623.15 V (V) @ I0=0, THP=673.15 V (V) @ I0=0.5, THP=673.15 V (V) @ I0=1, THP=673.15 V (V) @ I0=1.5, THP=673.15 V (V) @ I0=2, THP=673.15 V (V) @ I0=0, THP=723.15 V (V) @ I0=0.5, THP=723.15 V (V) @ I0=1, THP=723.15 V (V) @ I0=1.5, THP=723.15 V (V) @ I0=2, THP=723.15 V (V) @ I0=0, THP=773.15 V (V) @ I0=0.5, THP=773.15 V (V) @ I0=1, THP=773.15 V (V) @ I0=1.5, THP=773.15 V (V) @ I0=2, THP=773.15
0.003                     0.015                    0.003                    -4.6619174160802274E-4   0.007198208263452637     0.014864832054401233     0.02252897413171749      0.030193819237252412     -0.0013083574528016965   0.006397571973823558     0.014105399220880813     0.02181263436741261      0.029521616974032137     -0.0022620765181773955   0.0054981558765756855    0.013261427086743723     0.021023172217369178     0.028787290949539607     -0.003322536481608608    0.004521980759261947     0.01236670065312249      0.020217721180052852     0.028067831526122414     -0.004486957942671175    0.003433412357750663     0.011356471191435685     0.019280716878823705     0.02721468935275756      -0.005754922484641573    0.002204350528896392     0.010166656821879753     0.018129268626989582     0.02609503437505271      -0.007119300876689063    8.584363948562992E-4     0.008838066847950167     0.016821247461596366     0.024804561607516835     -0.008564956884101388    -5.552508193261959E-4    0.007456699037091249     0.015472223647608425     0.02348729618663739      -0.010071368109834437    -0.0020020952595207566   0.006069503007501076     0.014145203143027906     0.02222042055042963      -0.011613281070161005    -0.0034610262378978822   0.004693947059856247     0.012850414254635352     0.021013043490764632
