% Model:              hollow_mesh_phys.mph
% Version:            COMSOL 6.0.0.405
% Date:               Apr 9 2025, 12:57
% Dimension:          3
% Nodes:              1
% Expressions:        50
% Description:        Temperature
% Length unit:        m
% x                       y                        z                        T (K) @ I0=0, THP=323.15 T (K) @ I0=0.5, THP=323.15 T (K) @ I0=1, THP=323.15 T (K) @ I0=1.5, THP=323.15 T (K) @ I0=2, THP=323.15 T (K) @ I0=0, THP=373.15 T (K) @ I0=0.5, THP=373.15 T (K) @ I0=1, THP=373.15 T (K) @ I0=1.5, THP=373.15 T (K) @ I0=2, THP=373.15 T (K) @ I0=0, THP=423.15 T (K) @ I0=0.5, THP=423.15 T (K) @ I0=1, THP=423.15 T (K) @ I0=1.5, THP=423.15 T (K) @ I0=2, THP=423.15 T (K) @ I0=0, THP=473.15 T (K) @ I0=0.5, THP=473.15 T (K) @ I0=1, THP=473.15 T (K) @ I0=1.5, THP=473.15 T (K) @ I0=2, THP=473.15 T (K) @ I0=0, THP=523.15 T (K) @ I0=0.5, THP=523.15 T (K) @ I0=1, THP=523.15 T (K) @ I0=1.5, THP=523.15 T (K) @ I0=2, THP=523.15 T (K) @ I0=0, THP=573.15 T (K) @ I0=0.5, THP=573.15 T (K) @ I0=1, THP=573.15 T (K) @ I0=1.5, THP=573.15 T (K) @ I0=2, THP=573.15 T (K) @ I0=0, THP=623.15 T (K) @ I0=0.5, THP=623.15 T (K) @ I0=1, THP=623.15 T (K) @ I0=1.5, THP=623.15 T (K) @ I0=2, THP=623.15 T (K) @ I0=0, THP=673.15 T (K) @ I0=0.5, THP=673.15 T (K) @ I0=1, THP=673.15 T (K) @ I0=1.5, THP=673.15 T (K) @ I0=2, THP=673.15 T (K) @ I0=0, THP=723.15 T (K) @ I0=0.5, THP=723.15 T (K) @ I0=1, THP=723.15 T (K) @ I0=1.5, THP=723.15 T (K) @ I0=2, THP=723.15 T (K) @ I0=0, THP=773.15 T (K) @ I0=0.5, THP=773.15 T (K) @ I0=1, THP=773.15 T (K) @ I0=1.5, THP=773.15 T (K) @ I0=2, THP=773.15
0.003                     0                        0.003                    293.15089498163206       293.15091606609616       293.1509537159032        293.1510100562177        293.1510838891383        293.1524355642814        293.15245750014697       293.1524965089694        293.15255376915616       293.15262863946083       293.1539260572664        293.1539488789625        293.15398955316334       293.1540469286288        293.1541229541237        293.1553480541449        293.15537210417403       293.1554136588622        293.1554732084769        293.15554934043286       293.1567190453384        293.15674419462465       293.15678690752304       293.15684775487654       293.1569264749812        293.1580636680548        293.1580900487193        293.15813392465327       293.15819612304045       293.15827628647145       293.1593968398374        293.15942444959865       293.15946988703763       293.15953309193696       293.15961465816866       293.16072469638783       293.16075351432426       293.1608002243267        293.16086472087085       293.16094766621745       293.16205364041946       293.1620836570791        293.16213161138313       293.16219776004004       293.16228168555136       293.16339029030684       293.16342133663005       293.1634706228406        293.1635379233262        293.16362310914786
