% Model:              hollow_mesh_phys.mph
% Version:            COMSOL 6.0.0.405
% Date:               Apr 9 2025, 12:57
% Dimension:          3
% Nodes:              1
% Expressions:        50
% Description:        Electric potential
% Length unit:        m
% x                       y                        z                        V (V) @ I0=0, THP=323.15 V (V) @ I0=0.5, THP=323.15 V (V) @ I0=1, THP=323.15 V (V) @ I0=1.5, THP=323.15 V (V) @ I0=2, THP=323.15 V (V) @ I0=0, THP=373.15 V (V) @ I0=0.5, THP=373.15 V (V) @ I0=1, THP=373.15 V (V) @ I0=1.5, THP=373.15 V (V) @ I0=2, THP=373.15 V (V) @ I0=0, THP=423.15 V (V) @ I0=0.5, THP=423.15 V (V) @ I0=1, THP=423.15 V (V) @ I0=1.5, THP=423.15 V (V) @ I0=2, THP=423.15 V (V) @ I0=0, THP=473.15 V (V) @ I0=0.5, THP=473.15 V (V) @ I0=1, THP=473.15 V (V) @ I0=1.5, THP=473.15 V (V) @ I0=2, THP=473.15 V (V) @ I0=0, THP=523.15 V (V) @ I0=0.5, THP=523.15 V (V) @ I0=1, THP=523.15 V (V) @ I0=1.5, THP=523.15 V (V) @ I0=2, THP=523.15 V (V) @ I0=0, THP=573.15 V (V) @ I0=0.5, THP=573.15 V (V) @ I0=1, THP=573.15 V (V) @ I0=1.5, THP=573.15 V (V) @ I0=2, THP=573.15 V (V) @ I0=0, THP=623.15 V (V) @ I0=0.5, THP=623.15 V (V) @ I0=1, THP=623.15 V (V) @ I0=1.5, THP=623.15 V (V) @ I0=2, THP=623.15 V (V) @ I0=0, THP=673.15 V (V) @ I0=0.5, THP=673.15 V (V) @ I0=1, THP=673.15 V (V) @ I0=1.5, THP=673.15 V (V) @ I0=2, THP=673.15 V (V) @ I0=0, THP=723.15 V (V) @ I0=0.5, THP=723.15 V (V) @ I0=1, THP=723.15 V (V) @ I0=1.5, THP=723.15 V (V) @ I0=2, THP=723.15 V (V) @ I0=0, THP=773.15 V (V) @ I0=0.5, THP=773.15 V (V) @ I0=1, THP=773.15 V (V) @ I0=1.5, THP=773.15 V (V) @ I0=2, THP=773.15
0.003                     0.015                    0.003                    -4.6619407836497967E-4   0.006181728157990995     0.012831842989072728     0.019479297554592632     0.026127175979532354     -0.00130836844801801     0.005375323535362362     0.01206073242630634      0.018745133704523964     0.02543067091354479      -0.0022621120608856617   0.00446835509608655      0.011198692753690608     0.017932816370545432     0.0246655304211006       -0.003322583348966224    0.0034794370752653987    0.010283157563569654     0.017087435857820042     0.023897748320018675     -0.00448702119680057     0.002381378199671695     0.009252019282227708     0.016122961897140128     0.022996362117392085     -0.005755018732613905    0.0011470905760606442    0.008052596399087588     0.014957303366993198     0.021864099278625992     -0.007119416020834848    -2.007698138891076E-4    0.006719654449352594     0.013642979881393793     0.020565618248357974     -0.008565101646339241    -0.0016187142334605524   0.0053294097777477996    0.012280727088857062     0.0192308153337339       -0.010071523404772995    -0.003074233690118698    0.0039250536864190964    0.010924901053363679     0.01792933341458743      -0.01161346209116273     -0.0045443516955392775   0.0025249244487013534    0.009597053156312041     0.01667368364700549
