% Model:              thermo_rect_phys.mph
% Version:            COMSOL 6.0.0.405
% Date:               Apr 9 2025, 12:22
% Dimension:          3
% Nodes:              1
% Expressions:        50
% Description:        Temperature
% Length unit:        mm
% x                       y                        z                        T (K) @ I0=0, THP=323.15 T (K) @ I0=0.5, THP=323.15 T (K) @ I0=1, THP=323.15 T (K) @ I0=1.5, THP=323.15 T (K) @ I0=2, THP=323.15 T (K) @ I0=0, THP=373.15 T (K) @ I0=0.5, THP=373.15 T (K) @ I0=1, THP=373.15 T (K) @ I0=1.5, THP=373.15 T (K) @ I0=2, THP=373.15 T (K) @ I0=0, THP=423.15 T (K) @ I0=0.5, THP=423.15 T (K) @ I0=1, THP=423.15 T (K) @ I0=1.5, THP=423.15 T (K) @ I0=2, THP=423.15 T (K) @ I0=0, THP=473.15 T (K) @ I0=0.5, THP=473.15 T (K) @ I0=1, THP=473.15 T (K) @ I0=1.5, THP=473.15 T (K) @ I0=2, THP=473.15 T (K) @ I0=0, THP=523.15 T (K) @ I0=0.5, THP=523.15 T (K) @ I0=1, THP=523.15 T (K) @ I0=1.5, THP=523.15 T (K) @ I0=2, THP=523.15 T (K) @ I0=0, THP=573.15 T (K) @ I0=0.5, THP=573.15 T (K) @ I0=1, THP=573.15 T (K) @ I0=1.5, THP=573.15 T (K) @ I0=2, THP=573.15 T (K) @ I0=0, THP=623.15 T (K) @ I0=0.5, THP=623.15 T (K) @ I0=1, THP=623.15 T (K) @ I0=1.5, THP=623.15 T (K) @ I0=2, THP=623.15 T (K) @ I0=0, THP=673.15 T (K) @ I0=0.5, THP=673.15 T (K) @ I0=1, THP=673.15 T (K) @ I0=1.5, THP=673.15 T (K) @ I0=2, THP=673.15 T (K) @ I0=0, THP=723.15 T (K) @ I0=0.5, THP=723.15 T (K) @ I0=1, THP=723.15 T (K) @ I0=1.5, THP=723.15 T (K) @ I0=2, THP=723.15 T (K) @ I0=0, THP=773.15 T (K) @ I0=0.5, THP=773.15 T (K) @ I0=1, THP=773.15 T (K) @ I0=1.5, THP=773.15 T (K) @ I0=2, THP=773.15
3                         3                        0                        293.15232270210606       293.15234371437043       293.15237732955114       293.15242280655525       293.15247695789316       293.15631563428246       293.15633799526523       293.1563726060113        293.15641744673945       293.15647588845025       293.1601757007427        293.16019968709037       293.1602351286282        293.1602830356779        293.16034290688367       293.16386061904626       293.1638861233199        293.16392340001204       293.163972212203         293.1640336786663        293.1674170933609        293.1674440997265        293.1674829132863        293.16753326020415       293.16759644305733       293.1709096874167        293.17093813008586       293.17097889751057       293.17103151482655       293.1710956769846        293.1743760961348        293.174406191745         293.17444871293003       293.1745030378632        293.1745698031163        293.1778320393534        293.17786379699686       293.17790800044287       293.1779642713841        293.1780326338312        293.18129435759          293.1813277266828        293.1813736022434        293.18143156947593       293.18150165384486       293.1847784731795        293.1848133254175        293.1848605285843        293.1849203524997        293.1849920124587
