% Model:              thermo_rect_phys.mph
% Version:            COMSOL 6.0.0.405
% Date:               Apr 9 2025, 12:23
% Dimension:          3
% Nodes:              1
% Expressions:        50
% Description:        Electric potential
% Length unit:        mm
% x                       y                        z                        V (V) @ I0=0, THP=323.15 V (V) @ I0=0.5, THP=323.15 V (V) @ I0=1, THP=323.15 V (V) @ I0=1.5, THP=323.15 V (V) @ I0=2, THP=323.15 V (V) @ I0=0, THP=373.15 V (V) @ I0=0.5, THP=373.15 V (V) @ I0=1, THP=373.15 V (V) @ I0=1.5, THP=373.15 V (V) @ I0=2, THP=373.15 V (V) @ I0=0, THP=423.15 V (V) @ I0=0.5, THP=423.15 V (V) @ I0=1, THP=423.15 V (V) @ I0=1.5, THP=423.15 V (V) @ I0=2, THP=423.15 V (V) @ I0=0, THP=473.15 V (V) @ I0=0.5, THP=473.15 V (V) @ I0=1, THP=473.15 V (V) @ I0=1.5, THP=473.15 V (V) @ I0=2, THP=473.15 V (V) @ I0=0, THP=523.15 V (V) @ I0=0.5, THP=523.15 V (V) @ I0=1, THP=523.15 V (V) @ I0=1.5, THP=523.15 V (V) @ I0=2, THP=523.15 V (V) @ I0=0, THP=573.15 V (V) @ I0=0.5, THP=573.15 V (V) @ I0=1, THP=573.15 V (V) @ I0=1.5, THP=573.15 V (V) @ I0=2, THP=573.15 V (V) @ I0=0, THP=623.15 V (V) @ I0=0.5, THP=623.15 V (V) @ I0=1, THP=623.15 V (V) @ I0=1.5, THP=623.15 V (V) @ I0=2, THP=623.15 V (V) @ I0=0, THP=673.15 V (V) @ I0=0.5, THP=673.15 V (V) @ I0=1, THP=673.15 V (V) @ I0=1.5, THP=673.15 V (V) @ I0=2, THP=673.15 V (V) @ I0=0, THP=723.15 V (V) @ I0=0.5, THP=723.15 V (V) @ I0=1, THP=723.15 V (V) @ I0=1.5, THP=723.15 V (V) @ I0=2, THP=723.15 V (V) @ I0=0, THP=773.15 V (V) @ I0=0.5, THP=773.15 V (V) @ I0=1, THP=773.15 V (V) @ I0=1.5, THP=773.15 V (V) @ I0=2, THP=773.15
3                         3                        15                       -4.661614530827546E-4    0.0029946987291353607    0.006454852177275548     0.009915048610259197     0.013378072161842619     -0.0013082735137663903   0.0021718925189597024    0.00565175071833325      0.009133447416505527     0.012613552301361021     -0.0022619341933650242   0.0012433336118652576    0.004749316997090347     0.008254816541929525     0.011760556797645193     -0.0033223430028281307   2.2253032324811518E-4    0.0037679378511582136    0.007314311945781386     0.01086009024823435      -0.004486710295727902    -9.059965386181403E-4    0.002675436852226272     0.006258213013606082     0.009839999992687176     -0.005754623114649318    -0.0021563326737207454   0.0014417179273525475    0.0050407444569634625    0.008641571026997781     -0.007118935873185383    -0.003512865201819086    9.274618340711158E-5     0.0036996652912610526    0.007306262920166025     -0.008564541323596428    -0.004943791996708039    -0.0013234993617655389   0.0022975304993627815    0.005919340109557395     -0.01007089714902211     -0.006421775478728503    -0.0027731687150105125   8.76301749670588E-4      0.004526668770247141     -0.011612760996532391    -0.007923705152983958    -0.0042344819980756655   -5.458422568586527E-4    0.003144839031416248
