% Model:              hollow_cuboid_phys.mph
% Version:            COMSOL 6.0.0.405
% Date:               Dec 12 2024, 17:33
% Dimension:          3
% Nodes:              1
% Expressions:        50
% Description:        Temperature
% Length unit:        m
% x                       y                        z                        T (K) @ I0=0, THP=323.15 T (K) @ I0=0, THP=373.15 T (K) @ I0=0, THP=423.15 T (K) @ I0=0, THP=473.15 T (K) @ I0=0, THP=523.15 T (K) @ I0=0, THP=573.15 T (K) @ I0=0, THP=623.15 T (K) @ I0=0, THP=673.15 T (K) @ I0=0, THP=723.15 T (K) @ I0=0, THP=773.15 T (K) @ I0=0.5, THP=323.15 T (K) @ I0=0.5, THP=373.15 T (K) @ I0=0.5, THP=423.15 T (K) @ I0=0.5, THP=473.15 T (K) @ I0=0.5, THP=523.15 T (K) @ I0=0.5, THP=573.15 T (K) @ I0=0.5, THP=623.15 T (K) @ I0=0.5, THP=673.15 T (K) @ I0=0.5, THP=723.15 T (K) @ I0=0.5, THP=773.15 T (K) @ I0=1, THP=323.15 T (K) @ I0=1, THP=373.15 T (K) @ I0=1, THP=423.15 T (K) @ I0=1, THP=473.15 T (K) @ I0=1, THP=523.15 T (K) @ I0=1, THP=573.15 T (K) @ I0=1, THP=623.15 T (K) @ I0=1, THP=673.15 T (K) @ I0=1, THP=723.15 T (K) @ I0=1, THP=773.15 T (K) @ I0=1.5, THP=323.15 T (K) @ I0=1.5, THP=373.15 T (K) @ I0=1.5, THP=423.15 T (K) @ I0=1.5, THP=473.15 T (K) @ I0=1.5, THP=523.15 T (K) @ I0=1.5, THP=573.15 T (K) @ I0=1.5, THP=623.15 T (K) @ I0=1.5, THP=673.15 T (K) @ I0=1.5, THP=723.15 T (K) @ I0=1.5, THP=773.15 T (K) @ I0=2, THP=323.15 T (K) @ I0=2, THP=373.15 T (K) @ I0=2, THP=423.15 T (K) @ I0=2, THP=473.15 T (K) @ I0=2, THP=523.15 T (K) @ I0=2, THP=573.15 T (K) @ I0=2, THP=623.15 T (K) @ I0=2, THP=673.15 T (K) @ I0=2, THP=723.15 T (K) @ I0=2, THP=773.15
0.003                     0                        0.003                    318.8555738728189        361.76144297627314       403.9309485883453        445.56867338083686       487.00405301621663       528.5839536397912        570.3373831055691        612.1967916049117        654.2481074948274        696.5838957600415        319.21271218593444       362.2091726777347        404.47119664964595       446.21670029474654       487.81512033615815       529.5224866126439        571.4033658911436        613.3906555795511        655.5666480177824        698.0153555400373        319.86853106677427       362.9364197616455        405.31724702670846       447.19963916643695       488.8927602035384        530.7799799460546        572.789331803615         614.8333280634887        657.1328943788975        699.7989673691184        320.78204915657153       363.9238403689501        406.4385992392813        448.4764293453282        490.32437324238924       532.3474140777923        574.4184384530971        616.6651076608388        659.2036173066717        701.919124159067         321.95361060482946       365.17339894539805       407.83821945877514       450.0504984832232        492.0660484709887        534.1701487054992        576.4247919501121        618.8136294779732        661.5126951392809        704.3799187013041
