% Model:              hollow_cuboid_phys.mph
% Version:            COMSOL 6.0.0.405
% Date:               Dec 12 2024, 17:33
% Dimension:          3
% Nodes:              1
% Expressions:        50
% Description:        Electric potential
% Length unit:        m
% x                       y                        z                        V (V) @ I0=0, THP=323.15 V (V) @ I0=0, THP=373.15 V (V) @ I0=0, THP=423.15 V (V) @ I0=0, THP=473.15 V (V) @ I0=0, THP=523.15 V (V) @ I0=0, THP=573.15 V (V) @ I0=0, THP=623.15 V (V) @ I0=0, THP=673.15 V (V) @ I0=0, THP=723.15 V (V) @ I0=0, THP=773.15 V (V) @ I0=0.5, THP=323.15 V (V) @ I0=0.5, THP=373.15 V (V) @ I0=0.5, THP=423.15 V (V) @ I0=0.5, THP=473.15 V (V) @ I0=0.5, THP=523.15 V (V) @ I0=0.5, THP=573.15 V (V) @ I0=0.5, THP=623.15 V (V) @ I0=0.5, THP=673.15 V (V) @ I0=0.5, THP=723.15 V (V) @ I0=0.5, THP=773.15 V (V) @ I0=1, THP=323.15 V (V) @ I0=1, THP=373.15 V (V) @ I0=1, THP=423.15 V (V) @ I0=1, THP=473.15 V (V) @ I0=1, THP=523.15 V (V) @ I0=1, THP=573.15 V (V) @ I0=1, THP=623.15 V (V) @ I0=1, THP=673.15 V (V) @ I0=1, THP=723.15 V (V) @ I0=1, THP=773.15 V (V) @ I0=1.5, THP=323.15 V (V) @ I0=1.5, THP=373.15 V (V) @ I0=1.5, THP=423.15 V (V) @ I0=1.5, THP=473.15 V (V) @ I0=1.5, THP=523.15 V (V) @ I0=1.5, THP=573.15 V (V) @ I0=1.5, THP=623.15 V (V) @ I0=1.5, THP=673.15 V (V) @ I0=1.5, THP=723.15 V (V) @ I0=1.5, THP=773.15 V (V) @ I0=2, THP=323.15 V (V) @ I0=2, THP=373.15 V (V) @ I0=2, THP=423.15 V (V) @ I0=2, THP=473.15 V (V) @ I0=2, THP=523.15 V (V) @ I0=2, THP=573.15 V (V) @ I0=2, THP=623.15 V (V) @ I0=2, THP=673.15 V (V) @ I0=2, THP=723.15 V (V) @ I0=2, THP=773.15
0.003                     0.015                    0.003                    -6.753077358590982E-5    -2.0158073979617525E-4   -3.796646663615825E-4    -5.979885162796005E-4    -8.523884966038544E-4    -0.0011353498711674478   -0.0014386320431976443   -0.001752443378596138    -0.0020616567273440377   -0.0023488699456224982   0.004794657979465003     0.004714644863436639     0.0046353094983630615    0.004567393407136293     0.0043875948946897935    0.004055317838643678     0.0037049449821082592    0.003460071788998527     0.003329917951892412     0.0032685309343884025    0.009661854790019742     0.009635896281695717     0.00965772402396192      0.009740930827569149     0.00963637735985183      0.009250560196771068     0.008854957051965706     0.008685578686472833     0.008737151790536548     0.008904878984257179     0.014535542471684171     0.014563163729965564     0.014690223347660921     0.014925987603384313     0.014890834004697729     0.014449831021419739     0.014015024349078474     0.013922833474102912     0.01416647466342504      0.014564615921983892     0.019416604442376514     0.01949712744053549      0.019734713744659002     0.020124405094531464     0.020152654514280634     0.01965653098213269      0.019178969502346984     0.019176529294442617     0.01961888878720139      0.020251339498842776
