% Model:              hollow_honeycomb_phys.mph
% Version:            COMSOL 6.0.0.405
% Date:               Dec 12 2024, 09:57
% Dimension:          3
% Nodes:              1
% Expressions:        50
% Description:        Temperature
% Length unit:        m
% x                       y                        z                        T (K) @ I0=0, THP=323.15 T (K) @ I0=0.5, THP=323.15 T (K) @ I0=1, THP=323.15 T (K) @ I0=1.5, THP=323.15 T (K) @ I0=2, THP=323.15 T (K) @ I0=0, THP=373.15 T (K) @ I0=0.5, THP=373.15 T (K) @ I0=1, THP=373.15 T (K) @ I0=1.5, THP=373.15 T (K) @ I0=2, THP=373.15 T (K) @ I0=0, THP=423.15 T (K) @ I0=0.5, THP=423.15 T (K) @ I0=1, THP=423.15 T (K) @ I0=1.5, THP=423.15 T (K) @ I0=2, THP=423.15 T (K) @ I0=0, THP=473.15 T (K) @ I0=0.5, THP=473.15 T (K) @ I0=1, THP=473.15 T (K) @ I0=1.5, THP=473.15 T (K) @ I0=2, THP=473.15 T (K) @ I0=0, THP=523.15 T (K) @ I0=0.5, THP=523.15 T (K) @ I0=1, THP=523.15 T (K) @ I0=1.5, THP=523.15 T (K) @ I0=2, THP=523.15 T (K) @ I0=0, THP=573.15 T (K) @ I0=0.5, THP=573.15 T (K) @ I0=1, THP=573.15 T (K) @ I0=1.5, THP=573.15 T (K) @ I0=2, THP=573.15 T (K) @ I0=0, THP=623.15 T (K) @ I0=0.5, THP=623.15 T (K) @ I0=1, THP=623.15 T (K) @ I0=1.5, THP=623.15 T (K) @ I0=2, THP=623.15 T (K) @ I0=0, THP=673.15 T (K) @ I0=0.5, THP=673.15 T (K) @ I0=1, THP=673.15 T (K) @ I0=1.5, THP=673.15 T (K) @ I0=2, THP=673.15 T (K) @ I0=0, THP=723.15 T (K) @ I0=0.5, THP=723.15 T (K) @ I0=1, THP=723.15 T (K) @ I0=1.5, THP=723.15 T (K) @ I0=2, THP=723.15 T (K) @ I0=0, THP=773.15 T (K) @ I0=0.5, THP=773.15 T (K) @ I0=1, THP=773.15 T (K) @ I0=1.5, THP=773.15 T (K) @ I0=2, THP=773.15
0.003                     0                        0.003                    314.9341341394437        315.55472594591123       316.7714814391197        318.5498787013333        320.89066779645486       351.46749066670816       352.1834846198399        353.47625331805784       355.3326760154538        357.75863616172006       386.8781676295723        387.70490788380295       389.13819479796246       391.1581699601501        393.7744119281074        421.43998229114277       422.39659218235465       423.997297340671         426.2160285062338        429.06449167190704       455.5616595137121        456.6963200128062        458.4379394835688        460.8634193662486        463.94711194536757       489.74575715139935       491.03378514603276       492.98514990630093       495.5988951664864        498.8367840335161        524.1805119153997        525.6209991006431        527.7290364770336        530.5008235656677        533.9421450657019        558.8221649055712        560.4248106813724        562.6737118508738        565.5402401905168        569.1347531438848        593.6922309387089        595.446848324639         597.8526784780697        600.8749786709363        604.6467940946341        628.8868280624949        630.7915647497105        633.2829066904465        636.5550058845365        640.6214104257053
