% Model:              hollow_honeycomb_phys.mph
% Version:            COMSOL 6.0.0.405
% Date:               Dec 12 2024, 09:51
% Dimension:          3
% Nodes:              1
% Expressions:        50
% Description:        Electric potential
% Length unit:        m
% x                       y                        z                        V (V) @ I0=0, THP=323.15 V (V) @ I0=0.5, THP=323.15 V (V) @ I0=1, THP=323.15 V (V) @ I0=1.5, THP=323.15 V (V) @ I0=2, THP=323.15 V (V) @ I0=0, THP=373.15 V (V) @ I0=0.5, THP=373.15 V (V) @ I0=1, THP=373.15 V (V) @ I0=1.5, THP=373.15 V (V) @ I0=2, THP=373.15 V (V) @ I0=0, THP=423.15 V (V) @ I0=0.5, THP=423.15 V (V) @ I0=1, THP=423.15 V (V) @ I0=1.5, THP=423.15 V (V) @ I0=2, THP=423.15 V (V) @ I0=0, THP=473.15 V (V) @ I0=0.5, THP=473.15 V (V) @ I0=1, THP=473.15 V (V) @ I0=1.5, THP=473.15 V (V) @ I0=2, THP=473.15 V (V) @ I0=0, THP=523.15 V (V) @ I0=0.5, THP=523.15 V (V) @ I0=1, THP=523.15 V (V) @ I0=1.5, THP=523.15 V (V) @ I0=2, THP=523.15 V (V) @ I0=0, THP=573.15 V (V) @ I0=0.5, THP=573.15 V (V) @ I0=1, THP=573.15 V (V) @ I0=1.5, THP=573.15 V (V) @ I0=2, THP=573.15 V (V) @ I0=0, THP=623.15 V (V) @ I0=0.5, THP=623.15 V (V) @ I0=1, THP=623.15 V (V) @ I0=1.5, THP=623.15 V (V) @ I0=2, THP=623.15 V (V) @ I0=0, THP=673.15 V (V) @ I0=0.5, THP=673.15 V (V) @ I0=1, THP=673.15 V (V) @ I0=1.5, THP=673.15 V (V) @ I0=2, THP=673.15 V (V) @ I0=0, THP=723.15 V (V) @ I0=0.5, THP=723.15 V (V) @ I0=1, THP=723.15 V (V) @ I0=1.5, THP=723.15 V (V) @ I0=2, THP=723.15 V (V) @ I0=0, THP=773.15 V (V) @ I0=0.5, THP=773.15 V (V) @ I0=1, THP=773.15 V (V) @ I0=1.5, THP=773.15 V (V) @ I0=2, THP=773.15
0.003                     0.015                    0.003                    -1.2856360792082042E-4   0.007554111161769536     0.015249481772243159     0.02296203287506832      0.030694642680557455     -3.7854426049498623E-4   0.007386644372862432     0.015162968989423507     0.0229529975910453       0.030758835088960733     -7.027625256604031E-4    0.007179676776555454     0.015078343090185669     0.023000116521725615     0.03095110294189788      -0.0010946652367064091   0.006991914564770524     0.015098381665503412     0.02323429488690488      0.031406800940840515     -0.0015490266174289094   0.0066919034145441125    0.014955213336233751     0.023240689614903786     0.03155427744849772      -0.0020570841130883215   0.006195088333899692     0.01445979065941686      0.02273618449146079      0.031027501593438665     -0.0026067631739281633   0.005578790467608202     0.013773424567036526     0.02197528386391978      0.030181437024481166     -0.003183116193757352    0.004998070368616045     0.01319594894221514      0.021413432125400263     0.029642633295849437     -0.0037661390707723575   0.004543303386210118     0.012880173509712404     0.021249513043870932     0.029655172496342926     -0.0043310562746180494   0.004220249913823811     0.01281044260100906      0.021441084166056324     0.03013659674949012
