% Model:              hollow_mesh_phys.mph
% Version:            COMSOL 6.0.0.405
% Date:               Dec 12 2024, 09:19
% Dimension:          3
% Nodes:              1
% Expressions:        50
% Description:        Temperature
% Length unit:        m
% x                       y                        z                        T (K) @ I0=0, THP=323.15 T (K) @ I0=0.5, THP=323.15 T (K) @ I0=1, THP=323.15 T (K) @ I0=1.5, THP=323.15 T (K) @ I0=2, THP=323.15 T (K) @ I0=0, THP=373.15 T (K) @ I0=0.5, THP=373.15 T (K) @ I0=1, THP=373.15 T (K) @ I0=1.5, THP=373.15 T (K) @ I0=2, THP=373.15 T (K) @ I0=0, THP=423.15 T (K) @ I0=0.5, THP=423.15 T (K) @ I0=1, THP=423.15 T (K) @ I0=1.5, THP=423.15 T (K) @ I0=2, THP=423.15 T (K) @ I0=0, THP=473.15 T (K) @ I0=0.5, THP=473.15 T (K) @ I0=1, THP=473.15 T (K) @ I0=1.5, THP=473.15 T (K) @ I0=2, THP=473.15 T (K) @ I0=0, THP=523.15 T (K) @ I0=0.5, THP=523.15 T (K) @ I0=1, THP=523.15 T (K) @ I0=1.5, THP=523.15 T (K) @ I0=2, THP=523.15 T (K) @ I0=0, THP=573.15 T (K) @ I0=0.5, THP=573.15 T (K) @ I0=1, THP=573.15 T (K) @ I0=1.5, THP=573.15 T (K) @ I0=2, THP=573.15 T (K) @ I0=0, THP=623.15 T (K) @ I0=0.5, THP=623.15 T (K) @ I0=1, THP=623.15 T (K) @ I0=1.5, THP=623.15 T (K) @ I0=2, THP=623.15 T (K) @ I0=0, THP=673.15 T (K) @ I0=0.5, THP=673.15 T (K) @ I0=1, THP=673.15 T (K) @ I0=1.5, THP=673.15 T (K) @ I0=2, THP=673.15 T (K) @ I0=0, THP=723.15 T (K) @ I0=0.5, THP=723.15 T (K) @ I0=1, THP=723.15 T (K) @ I0=1.5, THP=723.15 T (K) @ I0=2, THP=723.15 T (K) @ I0=0, THP=773.15 T (K) @ I0=0.5, THP=773.15 T (K) @ I0=1, THP=773.15 T (K) @ I0=1.5, THP=773.15 T (K) @ I0=2, THP=773.15
0.003                     0                        0.003                    315.2913060295884        315.80287633772144       316.780811197208         318.18974994361264       320.0302274958578        352.40380024755865       353.00343406141445       354.05013960850596       355.52889278902194       357.44351535107376       388.41344057707926       389.11078698586704       390.2810209939647        391.9011822473024        393.9774084728385        423.5933043814473        424.40512687596566       425.7213462992622        427.51194406122306       429.7844262028778        458.35003671176344       459.32408898783467       460.75796324556154       462.72649651496596       465.19931152571706       493.1831276275629        494.29387938159925       495.91734088079806       498.0497608447348        500.6497016244549        528.2672876192245        529.5245871613749        531.2775024699797        533.5504495180434        536.3372737261419        563.551590203349         564.9456426777961        566.833671266151         569.2433223853628        572.1079264240292        599.0601308593829        600.590679229982         602.6190688406924        605.1071668391037        608.1873889054285        634.8960070162854        636.5607153524361        638.6539663307128        641.3706680973015        644.6262618891689
