% Model:              hollow_mesh_phys.mph
% Version:            COMSOL 6.0.0.405
% Date:               Dec 12 2024, 09:15
% Dimension:          3
% Nodes:              1
% Expressions:        50
% Description:        Electric potential
% Length unit:        m
% x                       y                        z                        V (V) @ I0=0, THP=323.15 V (V) @ I0=0.5, THP=323.15 V (V) @ I0=1, THP=323.15 V (V) @ I0=1.5, THP=323.15 V (V) @ I0=2, THP=323.15 V (V) @ I0=0, THP=373.15 V (V) @ I0=0.5, THP=373.15 V (V) @ I0=1, THP=373.15 V (V) @ I0=1.5, THP=373.15 V (V) @ I0=2, THP=373.15 V (V) @ I0=0, THP=423.15 V (V) @ I0=0.5, THP=423.15 V (V) @ I0=1, THP=423.15 V (V) @ I0=1.5, THP=423.15 V (V) @ I0=2, THP=423.15 V (V) @ I0=0, THP=473.15 V (V) @ I0=0.5, THP=473.15 V (V) @ I0=1, THP=473.15 V (V) @ I0=1.5, THP=473.15 V (V) @ I0=2, THP=473.15 V (V) @ I0=0, THP=523.15 V (V) @ I0=0.5, THP=523.15 V (V) @ I0=1, THP=523.15 V (V) @ I0=1.5, THP=523.15 V (V) @ I0=2, THP=523.15 V (V) @ I0=0, THP=573.15 V (V) @ I0=0.5, THP=573.15 V (V) @ I0=1, THP=573.15 V (V) @ I0=1.5, THP=573.15 V (V) @ I0=2, THP=573.15 V (V) @ I0=0, THP=623.15 V (V) @ I0=0.5, THP=623.15 V (V) @ I0=1, THP=623.15 V (V) @ I0=1.5, THP=623.15 V (V) @ I0=2, THP=623.15 V (V) @ I0=0, THP=673.15 V (V) @ I0=0.5, THP=673.15 V (V) @ I0=1, THP=673.15 V (V) @ I0=1.5, THP=673.15 V (V) @ I0=2, THP=673.15 V (V) @ I0=0, THP=723.15 V (V) @ I0=0.5, THP=723.15 V (V) @ I0=1, THP=723.15 V (V) @ I0=1.5, THP=723.15 V (V) @ I0=2, THP=723.15 V (V) @ I0=0, THP=773.15 V (V) @ I0=0.5, THP=773.15 V (V) @ I0=1, THP=773.15 V (V) @ I0=1.5, THP=773.15 V (V) @ I0=2, THP=773.15
0.003                     0.015                    0.003                    -1.2303827617052374E-4   0.006540659120088225     0.013213510674536893     0.019898828881991366     0.02659865304997525      -3.626788323494617E-4    0.006372703690099211     0.013116340412127826     0.019870123942976967     0.02663541034265472      -6.742631145682316E-4    0.006164024128731666     0.013014086551634607     0.019880906600720866     0.026768425119748224     -0.00105142816646659     0.0059658986446763426    0.012997382672397655     0.02005013384585855      0.027128867519959278     -0.0014890250736190982   0.005662600881625054     0.01283134473014255      0.020015589187553563     0.02722022180480869      -0.001978209493998944    0.0051800155788337306    0.012347542736797498     0.019524011305722202     0.026713349471389623     -0.002507061984776033    0.004588374501004092     0.011693223400153127     0.018803012116177683     0.025916976202365112     -0.0030609896554153943   0.004031680314140469     0.011137831541283135     0.018255490618476238     0.025390957119444474     -0.003620320414464697    0.003589092758410303     0.010820058485579872     0.018076183559158618     0.02535824410464714      -0.004160594363015158    0.003265711805380609     0.010722634463186016     0.018208113622596472     0.025735491038004765
