% Model:              thermo_rect_phys.mph
% Version:            COMSOL 6.0.0.405
% Date:               Dec 12 2024, 09:36
% Dimension:          3
% Nodes:              1
% Expressions:        50
% Description:        Temperature
% Length unit:        mm
% x                       y                        z                        T (K) @ I0=0, THP=323.15 T (K) @ I0=0.5, THP=323.15 T (K) @ I0=1, THP=323.15 T (K) @ I0=1.5, THP=323.15 T (K) @ I0=2, THP=323.15 T (K) @ I0=0, THP=373.15 T (K) @ I0=0.5, THP=373.15 T (K) @ I0=1, THP=373.15 T (K) @ I0=1.5, THP=373.15 T (K) @ I0=2, THP=373.15 T (K) @ I0=0, THP=423.15 T (K) @ I0=0.5, THP=423.15 T (K) @ I0=1, THP=423.15 T (K) @ I0=1.5, THP=423.15 T (K) @ I0=2, THP=423.15 T (K) @ I0=0, THP=473.15 T (K) @ I0=0.5, THP=473.15 T (K) @ I0=1, THP=473.15 T (K) @ I0=1.5, THP=473.15 T (K) @ I0=2, THP=473.15 T (K) @ I0=0, THP=523.15 T (K) @ I0=0.5, THP=523.15 T (K) @ I0=1, THP=523.15 T (K) @ I0=1.5, THP=523.15 T (K) @ I0=2, THP=523.15 T (K) @ I0=0, THP=573.15 T (K) @ I0=0.5, THP=573.15 T (K) @ I0=1, THP=573.15 T (K) @ I0=1.5, THP=573.15 T (K) @ I0=2, THP=573.15 T (K) @ I0=0, THP=623.15 T (K) @ I0=0.5, THP=623.15 T (K) @ I0=1, THP=623.15 T (K) @ I0=1.5, THP=623.15 T (K) @ I0=2, THP=623.15 T (K) @ I0=0, THP=673.15 T (K) @ I0=0.5, THP=673.15 T (K) @ I0=1, THP=673.15 T (K) @ I0=1.5, THP=673.15 T (K) @ I0=2, THP=673.15 T (K) @ I0=0, THP=723.15 T (K) @ I0=0.5, THP=723.15 T (K) @ I0=1, THP=723.15 T (K) @ I0=1.5, THP=723.15 T (K) @ I0=2, THP=723.15 T (K) @ I0=0, THP=773.15 T (K) @ I0=0.5, THP=773.15 T (K) @ I0=1, THP=773.15 T (K) @ I0=1.5, THP=773.15 T (K) @ I0=2, THP=773.15
3                         3                        0                        320.57721038549926       320.8051951272792        321.2153461211102        321.76392816609274       322.45113069326885       366.308452418993         366.61550810063284       367.08454970708135       367.6938262390228        368.4441034011516        411.55951530084286       411.9372567521117        412.4991607188776        413.21055833493807       414.07256926739814       456.46953921990627       456.93014842903017       457.5982341385793        458.4266513247409        459.4166665851723        501.27818349928117       501.8795570287732        502.6052320158058        503.5493311321567        504.66138461149325       546.2014469399074        546.9042447636989        547.7860089322124        548.8352422020236        549.9900813285739        591.2297063282517        592.0343858197778        592.9466236260544        594.0993772437117        595.420705430375         636.3278426323179        637.2340199172256        638.2413356207342        639.5044689133505        640.9403401843905        681.5771645167843        682.4815847064588        683.7759132615649        685.1515506590601        686.7070704733441        727.0220390596569        727.9955613288278        729.3929534565531        730.865651009391         732.5245767563255
