% Model:              thermo_rect_phys.mph
% Version:            COMSOL 6.0.0.405
% Date:               Dec 12 2024, 09:36
% Dimension:          3
% Nodes:              1
% Expressions:        50
% Description:        Electric potential
% Length unit:        mm
% x                       y                        z                        V (V) @ I0=0, THP=323.15 V (V) @ I0=0.5, THP=323.15 V (V) @ I0=1, THP=323.15 V (V) @ I0=1.5, THP=323.15 V (V) @ I0=2, THP=323.15 V (V) @ I0=0, THP=373.15 V (V) @ I0=0.5, THP=373.15 V (V) @ I0=1, THP=373.15 V (V) @ I0=1.5, THP=373.15 V (V) @ I0=2, THP=373.15 V (V) @ I0=0, THP=423.15 V (V) @ I0=0.5, THP=423.15 V (V) @ I0=1, THP=423.15 V (V) @ I0=1.5, THP=423.15 V (V) @ I0=2, THP=423.15 V (V) @ I0=0, THP=473.15 V (V) @ I0=0.5, THP=473.15 V (V) @ I0=1, THP=473.15 V (V) @ I0=1.5, THP=473.15 V (V) @ I0=2, THP=473.15 V (V) @ I0=0, THP=523.15 V (V) @ I0=0.5, THP=523.15 V (V) @ I0=1, THP=523.15 V (V) @ I0=1.5, THP=523.15 V (V) @ I0=2, THP=523.15 V (V) @ I0=0, THP=573.15 V (V) @ I0=0.5, THP=573.15 V (V) @ I0=1, THP=573.15 V (V) @ I0=1.5, THP=573.15 V (V) @ I0=2, THP=573.15 V (V) @ I0=0, THP=623.15 V (V) @ I0=0.5, THP=623.15 V (V) @ I0=1, THP=623.15 V (V) @ I0=1.5, THP=623.15 V (V) @ I0=2, THP=623.15 V (V) @ I0=0, THP=673.15 V (V) @ I0=0.5, THP=673.15 V (V) @ I0=1, THP=673.15 V (V) @ I0=1.5, THP=673.15 V (V) @ I0=2, THP=673.15 V (V) @ I0=0, THP=723.15 V (V) @ I0=0.5, THP=723.15 V (V) @ I0=1, THP=723.15 V (V) @ I0=1.5, THP=723.15 V (V) @ I0=2, THP=723.15 V (V) @ I0=0, THP=773.15 V (V) @ I0=0.5, THP=773.15 V (V) @ I0=1, THP=773.15 V (V) @ I0=1.5, THP=773.15 V (V) @ I0=2, THP=773.15
3                         3                        15                       -4.057205361128235E-5    0.0034324093666656436    0.006907877296881769     0.01038650412345903      0.013868635915027077     -1.2190980598993442E-4   0.0033905937190780834    0.006905765155871355     0.010424085638309924     0.013945827351841583     -2.3105050376731815E-4   0.0033608391382457144    0.006956586621959474     0.010557435486444356     0.014164132893539095     -3.656946579751487E-4    0.0033377952801989736    0.007045273426993044     0.010758332061877892     0.014477611771682585     -5.226924630542077E-4    0.0032188186139480916    0.0069649996661941506    0.010713337749433203     0.014464901286356576     -6.966782688901806E-4    0.0029962295328592836    0.006691801891746073     0.010389974893163465     0.01409336835702276      -8.823035900174866E-4    0.002791185581817722     0.0064705612174313564    0.010153262093039999     0.013841342481727387     -0.0010727522909308792   0.002683866250807207     0.006447492155132319     0.010218631409827084     0.013999406904725096     -0.0012572871655812383   0.002654988001308524     0.0065755348253557335    0.010507790364998612     0.014452623606570462     -0.0014247321847401368   0.00265848513291951      0.006750641609748683     0.010854774500215858     0.014971707889635593
